ITEM: TIMESTEP
0
ITEM: NUMBER OF ATOMS
9000
ITEM: BOX BOUNDS pp pp pp
-5.0000000000000000e+01 5.0000000000000000e+01
-5.0000000000000000e+01 5.0000000000000000e+01
-5.0000000000000000e+01 5.0000000000000000e+01
ITEM: ATOMS id type x y z
1 2 -21.2745 -12.3738 11.6725
2 1 -22.026 -11.9149 12.0147
3 1 -22.7333 -11.5953 12.5069
4 1 -22.0988 -12.145 13.0507
5 1 -21.2076 -12.4092 12.7514
6 1 -21.8819 -12.9375 12.2826
7 1 -21.1709 -13.4131 11.8954
8 1 -20.9801 -14.1978 11.425
9 1 -21.3617 -14.089 10.5927
10 1 -21.9438 -13.7203 10.0244
11 1 -21.8661 -12.7017 9.97334
12 1 -21.6287 -13.0313 10.8043
13 1 -22.0709 -12.2177 11.0017
14 1 -22.5966 -12.8055 11.5545
15 1 -22.9966 -11.911 11.4867
16 1 -23.5949 -12.2457 12.1489
17 1 -22.9205 -12.6367 12.5847
18 1 -23.3531 -12.2632 13.277
19 1 -23.8265 -12.7739 13.9315
20 1 -22.9353 -13.3276 13.9306
21 1 -22.2771 -13.2139 13.25
22 1 -21.8089 -14.0048 13.5657
23 1 -21.2272 -13.5279 12.9639
24 1 -20.6424 -14.2277 12.4796
25 1 -21.2684 -14.7248 13.0029
26 1 -21.2445 -15.6796 12.8471
27 1 -21.005 -15.203 12.0462
28 1 -21.6174 -15.887 11.6685
29 1 -22.5555 -15.7549 11.6389
30 3 -22.4275 -16.3705 12.3407
31 1 -22.3721 -15.931 13.1319
32 1 -22.2139 -15.1036 13.5526
33 1 -22.8483 -14.4072 13.7663
34 1 -22.6297 -14.3989 12.8772
35 1 -22.6752 -13.6812 12.2952
36 1 -22.102 -13.7455 11.4627
37 1 -21.7503 -14.2264 12.2089
38 1 -22.0935 -15.131 12.3457
39 1 -23.0344 -15.3648 12.5155
40 1 -23.9375 -15.2728 12.5012
41 1 -23.5931 -14.4822 12.1144
42 1 -22.7622 -14.6662 11.6904
43 1 -21.8867 -14.8306 11.3123
44 1 -21.1535 -15.234 10.8631
45 1 -21.8944 -15.6531 10.6029
46 1 -21.9207 -14.8681 10.0748
47 1 -22.8024 -15.1762 9.81617
48 1 -22.813 -15.2223 10.7768
49 1 -22.6411 -14.3105 10.6377
50 1 -23.0324 -14.0208 9.83418
51 1 -22.9265 -13.026 9.52639
52 1 -23.8747 -12.8961 9.89699
53 1 -24.136 -13.7777 9.78632
54 1 -23.6886 -13.6779 10.5861
55 1 -23.1799 -13.6367 11.324
56 1 -22.6778 -13.2026 10.5852
57 1 -23.0362 -12.2948 10.4452
58 1 -23.6415 -12.6819 11.073
59 1 -24.418 -12.7609 11.6458
60 4 -24.7098 -13.0466 10.806
61 1 -25.3469 -13.4066 11.4569
62 1 -25.3407 -14.2475 11.9648
63 1 -25.6081 -14.1726 12.8698
64 1 -24.9223 -14.8756 12.7115
65 1 -24.485 -14.0408 12.5744
66 1 -25.0366 -13.3037 12.499
67 1 -24.2424 -12.8229 12.8077
68 1 -23.6927 -13.3596 12.2005
69 1 -23.4811 -13.5311 13.0625
70 1 -23.6956 -14.397 13.2016
71 1 -23.8073 -13.9521 13.979
72 1 -24.5735 -13.5589 13.536
73 1 -24.7456 -14.4515 13.6889
74 1 -24.2227 -15.2396 13.5027
75 1 -23.307 -15.4041 13.5502
76 1 -23.4117 -16.2324 13.1722
77 1 -23.6217 -16.2333 12.2458
78 1 -23.3614 -16.511 11.3738
79 1 -22.7884 -16.3466 10.638
80 1 -23.6408 -15.773 10.5242
81 1 -24.4281 -15.3954 10.6799
82 1 -23.7971 -14.7905 10.1944
83 1 -23.6423 -14.6063 11.0768
84 1 -23.5487 -15.4397 11.5237
85 1 -24.2777 -16.0159 11.5365
86 1 -24.7627 -15.9992 12.3729
87 1 -25.2391 -15.4386 11.7797
88 1 -24.4841 -14.8267 11.6993
89 1 -24.3071 -13.8901 11.4643
90 5 -24.7399 -14.1925 10.6992
91 6 -37.183 10.0008 -24.2343
92 1 -37.9345 10.4597 -23.8921
93 1 -38.6418 10.7793 -23.4
94 1 -38.0073 10.2296 -22.8561
95 1 -37.1161 9.96543 -23.1554
96 1 -37.7904 9.43713 -23.6242
97 1 -37.0794 8.96153 -24.0114
98 1 -36.8886 8.17683 -24.4818
99 1 -37.2702 8.28563 -25.3141
100 1 -37.8523 8.65433 -25.8824
101 1 -37.7746 9.67293 -25.9335
102 1 -37.5372 9.34333 -25.1025
103 1 -37.9794 10.1569 -24.9051
104 1 -38.5051 9.56913 -24.3523
105 1 -38.9051 10.4636 -24.4201
106 1 -39.5034 10.1289 -23.758
107 1 -38.829 9.73793 -23.3221
108 1 -39.2616 10.1114 -22.6298
109 1 -39.735 9.60073 -21.9753
110 1 -38.8438 9.04703 -21.9763
111 1 -38.1856 9.16073 -22.6568
112 1 -37.7174 8.36983 -22.3411
113 1 -37.1357 8.84673 -22.9429
114 1 -36.5509 8.14693 -23.4272
115 1 -37.1769 7.64983 -22.9039
116 1 -37.153 6.69503 -23.0597
117 1 -36.9135 7.17163 -23.8606
118 1 -37.5259 6.48763 -24.2383
119 1 -38.464 6.61973 -24.2679
120 7 -38.336 6.00413 -23.5661
121 1 -38.2806 6.44363 -22.7749
122 1 -38.1224 7.27103 -22.3542
123 1 -38.7568 7.96743 -22.1405
124 1 -38.5382 7.97573 -23.0296
125 1 -38.5837 8.69343 -23.6116
126 1 -38.0105 8.62913 -24.4441
127 1 -37.6588 8.14823 -23.6979
128 1 -38.002 7.24363 -23.5611
129 1 -38.9429 7.00983 -23.3913
130 1 -39.846 7.10183 -23.4056
131 1 -39.5016 7.89243 -23.7925
132 1 -38.6707 7.70843 -24.2164
133 1 -37.7952 7.54403 -24.5945
134 1 -37.062 7.14063 -25.0437
135 1 -37.8029 6.72153 -25.3039
136 1 -37.8292 7.50653 -25.8321
137 1 -38.7109 7.19843 -26.0906
138 1 -38.7215 7.15233 -25.1301
139 1 -38.5496 8.06413 -25.2692
140 1 -38.9409 8.35383 -26.0726
141 1 -38.835 9.34863 -26.3804
142 1 -39.7832 9.47853 -26.0098
143 1 -40.0445 8.59693 -26.1205
144 1 -39.5971 8.69673 -25.3207
145 1 -39.0884 8.73793 -24.5828
146 1 -38.5863 9.17203 -25.3216
147 1 -38.9447 10.0798 -25.4616
148 1 -39.55 9.69273 -24.8338
149 1 -40.3265 9.61373 -24.261
150 8 -40.6183 9.32803 -25.1008
151 1 -41.2554 8.96803 -24.4499
152 1 -41.2492 8.12713 -23.942
153 1 -41.5166 8.20203 -23.0371
154 1 -40.8308 7.49903 -23.1953
155 1 -40.3935 8.33383 -23.3324
156 1 -40.9451 9.07093 -23.4078
157 1 -40.1509 9.55173 -23.0991
158 1 -39.6012 9.01503 -23.7063
159 1 -39.3896 8.84353 -22.8443
160 1 -39.6041 7.97763 -22.7052
161 1 -39.7158 8.42253 -21.9279
162 1 -40.482 8.81573 -22.3708
163 1 -40.6541 7.92313 -22.218
164 1 -40.1312 7.13503 -22.4041
165 1 -39.2155 6.97053 -22.3566
166 1 -39.3202 6.14223 -22.7346
167 1 -39.5302 6.14133 -23.661
168 1 -39.2699 5.86363 -24.533
169 1 -38.6969 6.02803 -25.2688
170 1 -39.5493 6.60163 -25.3826
171 1 -40.3366 6.97923 -25.2269
172 1 -39.7056 7.58413 -25.7124
173 1 -39.5508 7.76833 -24.83
174 1 -39.4572 6.93493 -24.3831
175 1 -40.1862 6.35873 -24.3703
176 1 -40.6712 6.37543 -23.5339
177 1 -41.1476 6.93603 -24.1271
178 1 -40.3926 7.54793 -24.2075
179 1 -40.2156 8.48453 -24.4425
180 9 -40.6484 8.18213 -25.2076
181 10 -30.1535 -0.284912 12.6187
182 1 -30.905 0.173988 12.9609
183 1 -31.6123 0.493588 13.453
184 1 -30.9778 -0.0561117 13.9969
185 1 -30.0866 -0.320312 13.6976
186 1 -30.7609 -0.848612 13.2288
187 1 -30.0499 -1.32421 12.8415
188 1 -29.8591 -2.10891 12.3712
189 1 -30.2407 -2.00011 11.5389
190 1 -30.8228 -1.63141 10.9706
191 1 -30.7451 -0.612812 10.9195
192 1 -30.5077 -0.942412 11.7505
193 1 -30.9499 -0.128812 11.9478
194 1 -31.4756 -0.716612 12.5007
195 1 -31.8756 0.177888 12.4329
196 1 -32.4739 -0.156812 13.095
197 1 -31.7995 -0.547812 13.5308
198 1 -32.2321 -0.174312 14.2232
199 1 -32.7055 -0.685012 14.8776
200 1 -31.8143 -1.23871 14.8767
201 1 -31.1561 -1.12501 14.1962
202 1 -30.6879 -1.91591 14.5118
203 1 -30.1062 -1.43901 13.9101
204 1 -29.5214 -2.13881 13.4258
205 1 -30.1474 -2.63591 13.9491
206 1 -30.1235 -3.59071 13.7932
207 1 -29.884 -3.11411 12.9923
208 1 -30.4964 -3.79811 12.6147
209 1 -31.4345 -3.66601 12.585
210 11 -31.3065 -4.28161 13.2869
211 1 -31.2511 -3.84211 14.0781
212 1 -31.0929 -3.01471 14.4987
213 1 -31.7273 -2.31831 14.7125
214 1 -31.5087 -2.31001 13.8234
215 1 -31.5542 -1.59231 13.2414
216 1 -30.981 -1.65661 12.4089
217 1 -30.6293 -2.13751 13.155
218 1 -30.9725 -3.04211 13.2919
219 1 -31.9134 -3.27591 13.4616
220 1 -32.8165 -3.18391 13.4474
221 1 -32.4721 -2.39331 13.0605
222 1 -31.6412 -2.57731 12.6366
223 1 -30.7657 -2.74171 12.2584
224 1 -30.0325 -3.14511 11.8093
225 1 -30.7734 -3.56421 11.549
226 1 -30.7997 -2.77921 11.0209
227 1 -31.6814 -3.08731 10.7623
228 1 -31.692 -3.13341 11.7229
229 1 -31.5201 -2.22161 11.5838
230 1 -31.9114 -1.93191 10.7803
231 1 -31.8055 -0.937112 10.4726
232 1 -32.7537 -0.807212 10.8432
233 1 -33.015 -1.68881 10.7325
234 1 -32.5676 -1.58901 11.5323
235 1 -32.0589 -1.54781 12.2702
236 1 -31.5568 -1.11371 11.5314
237 1 -31.9152 -0.205912 11.3913
238 1 -32.5205 -0.593012 12.0192
239 1 -33.297 -0.672012 12.592
240 12 -33.5888 -0.957712 11.7522
241 1 -34.2259 -1.31771 12.403
242 1 -34.2197 -2.15861 12.9109
243 1 -34.4871 -2.08371 13.8159
244 1 -33.8013 -2.78671 13.6577
245 1 -33.364 -1.95191 13.5206
246 1 -33.9156 -1.21481 13.4451
247 1 -33.1214 -0.734012 13.7539
248 1 -32.5717 -1.27071 13.1467
249 1 -32.3601 -1.44221 14.0086
250 1 -32.5746 -2.30811 14.1478
251 1 -32.6863 -1.86321 14.9251
252 1 -33.4525 -1.47001 14.4822
253 1 -33.6246 -2.36261 14.635
254 1 -33.1017 -3.15071 14.4488
255 1 -32.186 -3.31521 14.4964
256 1 -32.2907 -4.14351 14.1183
257 1 -32.5007 -4.14441 13.192
258 1 -32.2404 -4.42211 12.32
259 1 -31.6674 -4.25771 11.5841
260 1 -32.5198 -3.68411 11.4704
261 1 -33.3071 -3.30651 11.6261
262 1 -32.6761 -2.70161 11.1405
263 1 -32.5213 -2.51741 12.023
264 1 -32.4277 -3.35081 12.4699
265 1 -33.1567 -3.92701 12.4826
266 1 -33.6417 -3.91031 13.3191
267 1 -34.1181 -3.34971 12.7259
268 1 -33.3631 -2.73781 12.6455
269 1 -33.1861 -1.80121 12.4104
270 13 -33.6189 -2.10361 11.6453
271 14 -20.7253 -20.8711 -11.1183
272 1 -21.4768 -20.4122 -10.7761
273 1 -22.1841 -20.0926 -10.284
274 1 -21.5496 -20.6423 -9.74015
275 1 -20.6584 -20.9065 -10.0394
276 1 -21.3327 -21.4348 -10.5083
277 1 -20.6217 -21.9104 -10.8955
278 1 -20.4309 -22.6951 -11.3658
279 1 -20.8125 -22.5863 -12.1982
280 1 -21.3946 -22.2176 -12.7665
281 1 -21.3169 -21.199 -12.8175
282 1 -21.0795 -21.5286 -11.9865
283 1 -21.5217 -20.715 -11.7892
284 1 -22.0474 -21.3028 -11.2364
285 1 -22.4474 -20.4083 -11.3041
286 1 -23.0457 -20.743 -10.642
287 1 -22.3713 -21.134 -10.2062
288 1 -22.8039 -20.7605 -9.51383
289 1 -23.2773 -21.2712 -8.85938
290 1 -22.3861 -21.8249 -8.8603
291 1 -21.7279 -21.7112 -9.54087
292 1 -21.2597 -22.5021 -9.22519
293 1 -20.678 -22.0252 -9.82694
294 1 -20.0932 -22.725 -10.3112
295 1 -20.7192 -23.2221 -9.78794
296 1 -20.6953 -24.1769 -9.94378
297 1 -20.4558 -23.7003 -10.7447
298 1 -21.0682 -24.3843 -11.1223
299 1 -22.0063 -24.2522 -11.152
300 15 -21.8783 -24.8678 -10.4502
301 1 -21.8229 -24.4283 -9.65894
302 1 -21.6647 -23.6009 -9.23828
303 1 -22.2991 -22.9045 -9.02452
304 1 -22.0805 -22.8962 -9.91367
305 1 -22.126 -22.1785 -10.4956
306 1 -21.5528 -22.2428 -11.3282
307 1 -21.2011 -22.7237 -10.582
308 1 -21.5443 -23.6283 -10.4452
309 1 -22.4852 -23.8621 -10.2754
310 1 -23.3883 -23.7701 -10.2896
311 1 -23.0439 -22.9795 -10.6765
312 1 -22.213 -23.1635 -11.1005
313 1 -21.3375 -23.3279 -11.4786
314 1 -20.6043 -23.7313 -11.9277
315 1 -21.3452 -24.1504 -12.188
316 1 -21.3715 -23.3654 -12.7161
317 1 -22.2532 -23.6735 -12.9747
318 1 -22.2638 -23.7196 -12.0141
319 1 -22.0919 -22.8078 -12.1532
320 1 -22.4832 -22.5181 -12.9567
321 1 -22.3773 -21.5233 -13.2645
322 1 -23.3255 -21.3934 -12.8939
323 1 -23.5868 -22.275 -13.0045
324 1 -23.1394 -22.1752 -12.2047
325 1 -22.6307 -22.134 -11.4668
326 1 -22.1286 -21.6999 -12.2056
327 1 -22.487 -20.7921 -12.3457
328 1 -23.0923 -21.1792 -11.7179
329 1 -23.8688 -21.2582 -11.1451
330 16 -24.1606 -21.5439 -11.9849
331 1 -24.7977 -21.9039 -11.334
332 1 -24.7915 -22.7448 -10.8261
333 1 -25.0589 -22.6699 -9.9211
334 1 -24.3731 -23.3729 -10.0794
335 1 -23.9358 -22.5381 -10.2164
336 1 -24.4874 -21.801 -10.2919
337 1 -23.6932 -21.3202 -9.98311
338 1 -23.1435 -21.8569 -10.5903
339 1 -22.9319 -22.0284 -9.72838
340 1 -23.1464 -22.8943 -9.58922
341 1 -23.2581 -22.4494 -8.8119
342 1 -24.0243 -22.0562 -9.25487
343 1 -24.1964 -22.9488 -9.102
344 1 -23.6735 -23.7369 -9.28819
345 1 -22.7578 -23.9014 -9.24067
346 1 -22.8625 -24.7297 -9.61869
347 1 -23.0725 -24.7306 -10.545
348 1 -22.8122 -25.0083 -11.4171
349 1 -22.2392 -24.8439 -12.1529
350 1 -23.0916 -24.2703 -12.2667
351 1 -23.8789 -23.8927 -12.1109
352 1 -23.2479 -23.2878 -12.5965
353 1 -23.0931 -23.1036 -11.7141
354 1 -22.9995 -23.937 -11.2671
355 1 -23.7285 -24.5132 -11.2544
356 1 -24.2135 -24.4965 -10.418
357 1 -24.6899 -23.9359 -11.0112
358 1 -23.9349 -23.324 -11.0915
359 1 -23.7579 -22.3874 -11.3266
360 17 -24.1907 -22.6898 -12.0917
361 18 -32.3292 -10.4125 38.5341
362 1 -33.0807 -9.95359 38.8763
363 1 -33.788 -9.63399 39.3684
364 1 -33.1535 -10.1837 39.9123
365 1 -32.2623 -10.4479 39.613
366 1 -32.9366 -10.9762 39.1442
367 1 -32.2256 -11.4518 38.757
368 1 -32.0348 -12.2365 38.2866
369 1 -32.4164 -12.1277 37.4543
370 1 -32.9985 -11.759 36.886
371 1 -32.9208 -10.7404 36.8349
372 1 -32.6834 -11.07 37.6659
373 1 -33.1256 -10.2564 37.8633
374 1 -33.6513 -10.8442 38.4161
375 1 -34.0513 -9.94969 38.3483
376 1 -34.6496 -10.2844 39.0104
377 1 -33.9752 -10.6754 39.4463
378 1 -34.4078 -10.3019 40.1386
379 1 -34.8812 -10.8126 40.7931
380 1 -33.99 -11.3663 40.7921
381 1 -33.3318 -11.2526 40.1116
382 1 -32.8636 -12.0435 40.4273
383 1 -32.2819 -11.5666 39.8255
384 1 -31.6971 -12.2664 39.3412
385 1 -32.3231 -12.7635 39.8645
386 1 -32.2992 -13.7183 39.7087
387 1 -32.0597 -13.2417 38.9078
388 1 -32.6721 -13.9257 38.5301
389 1 -33.6102 -13.7936 38.5005
390 19 -33.4822 -14.4092 39.2023
391 1 -33.4268 -13.9697 39.9935
392 1 -33.2686 -13.1423 40.4142
393 1 -33.903 -12.4459 40.6279
394 1 -33.6844 -12.4376 39.7388
395 1 -33.7299 -11.7199 39.1568
396 1 -33.1567 -11.7842 38.3243
397 1 -32.805 -12.2651 39.0705
398 1 -33.1482 -13.1697 39.2073
399 1 -34.0891 -13.4035 39.3771
400 1 -34.9922 -13.3115 39.3628
401 1 -34.6478 -12.5209 38.9759
402 1 -33.8169 -12.7049 38.552
403 1 -32.9414 -12.8693 38.1739
404 1 -32.2082 -13.2727 37.7247
405 1 -32.9491 -13.6918 37.4645
406 1 -32.9754 -12.9068 36.9363
407 1 -33.8571 -13.2149 36.6778
408 1 -33.8677 -13.261 37.6383
409 1 -33.6958 -12.3492 37.4992
410 1 -34.0871 -12.0595 36.6958
411 1 -33.9812 -11.0647 36.388
412 1 -34.9294 -10.9348 36.7586
413 1 -35.1907 -11.8164 36.6479
414 1 -34.7433 -11.7166 37.4477
415 1 -34.2346 -11.6754 38.1856
416 1 -33.7325 -11.2413 37.4468
417 1 -34.0909 -10.3335 37.3068
418 1 -34.6962 -10.7206 37.9346
419 1 -35.4727 -10.7996 38.5074
420 20 -35.7645 -11.0853 37.6676
421 1 -36.4016 -11.4453 38.3185
422 1 -36.3954 -12.2862 38.8264
423 1 -36.6628 -12.2113 39.7313
424 1 -35.977 -12.9143 39.5731
425 1 -35.5397 -12.0795 39.436
426 1 -36.0913 -11.3424 39.3606
427 1 -35.2971 -10.8616 39.6693
428 1 -34.7474 -11.3983 39.0621
429 1 -34.5358 -11.5698 39.9241
430 1 -34.7503 -12.4357 40.0632
431 1 -34.862 -11.9908 40.8405
432 1 -35.6282 -11.5976 40.3976
433 1 -35.8003 -12.4902 40.5504
434 1 -35.2774 -13.2783 40.3643
435 1 -34.3617 -13.4428 40.4118
436 1 -34.4664 -14.2711 40.0338
437 1 -34.6764 -14.272 39.1074
438 1 -34.4161 -14.5497 38.2354
439 1 -33.8431 -14.3853 37.4996
440 1 -34.6955 -13.8117 37.3858
441 1 -35.4828 -13.4341 37.5415
442 1 -34.8518 -12.8292 37.056
443 1 -34.697 -12.645 37.9384
444 1 -34.6034 -13.4784 38.3853
445 1 -35.3324 -14.0546 38.3981
446 1 -35.8174 -14.0379 39.2345
447 1 -36.2938 -13.4773 38.6413
448 1 -35.5388 -12.8654 38.5609
449 1 -35.3618 -11.9288 38.3259
450 21 -35.7946 -12.2312 37.5608
451 22 25.3587 -26.7456 18.1583
452 1 24.6072 -26.2867 18.5005
453 1 23.8999 -25.9671 18.9926
454 1 24.5344 -26.5168 19.5365
455 1 25.4256 -26.781 19.2372
456 1 24.7513 -27.3093 18.7684
457 1 25.4623 -27.7849 18.3811
458 1 25.6531 -28.5696 17.9108
459 1 25.2715 -28.4608 17.0784
460 1 24.6894 -28.0921 16.5102
461 1 24.7671 -27.0735 16.4591
462 1 25.0045 -27.4031 17.2901
463 1 24.5623 -26.5895 17.4874
464 1 24.0366 -27.1773 18.0403
465 1 23.6366 -26.2828 17.9725
466 1 23.0383 -26.6175 18.6346
467 1 23.7127 -27.0085 19.0704
468 1 23.2801 -26.635 19.7628
469 1 22.8067 -27.1457 20.4172
470 1 23.6979 -27.6994 20.4163
471 1 24.3561 -27.5857 19.7357
472 1 24.8243 -28.3766 20.0514
473 1 25.406 -27.8997 19.4497
474 1 25.9908 -28.5995 18.9654
475 1 25.3648 -29.0966 19.4887
476 1 25.3887 -30.0514 19.3328
477 1 25.6282 -29.5748 18.5319
478 1 25.0158 -30.2588 18.1543
479 1 24.0777 -30.1267 18.1246
480 23 24.2057 -30.7423 18.8265
481 1 24.2611 -30.3028 19.6177
482 1 24.4193 -29.4754 20.0383
483 1 23.7849 -28.779 20.2521
484 1 24.0035 -28.7707 19.3629
485 1 23.958 -28.053 18.781
486 1 24.5312 -28.1173 17.9485
487 1 24.8829 -28.5982 18.6946
488 1 24.5397 -29.5028 18.8314
489 1 23.5988 -29.7366 19.0012
490 1 22.6957 -29.6446 18.987
491 1 23.0401 -28.854 18.6001
492 1 23.871 -29.038 18.1762
493 1 24.7465 -29.2024 17.798
494 1 25.4797 -29.6058 17.3489
495 1 24.7388 -30.0249 17.0886
496 1 24.7125 -29.2399 16.5605
497 1 23.8308 -29.548 16.3019
498 1 23.8202 -29.5941 17.2625
499 1 23.9921 -28.6823 17.1234
500 1 23.6008 -28.3926 16.3199
501 1 23.7067 -27.3978 16.0121
502 1 22.7585 -27.2679 16.3827
503 1 22.4972 -28.1495 16.2721
504 1 22.9446 -28.0497 17.0719
505 1 23.4533 -28.0085 17.8098
506 1 23.9554 -27.5744 17.071
507 1 23.597 -26.6666 16.9309
508 1 22.9917 -27.0537 17.5588
509 1 22.2152 -27.1327 18.1316
510 24 21.9234 -27.4184 17.2918
511 1 21.2863 -27.7784 17.9426
512 1 21.2925 -28.6193 18.4505
513 1 21.0251 -28.5444 19.3555
514 1 21.7109 -29.2474 19.1973
515 1 22.1482 -28.4126 19.0602
516 1 21.5966 -27.6755 18.9847
517 1 22.3908 -27.1947 19.2935
518 1 22.9405 -27.7314 18.6863
519 1 23.1521 -27.9029 19.5482
520 1 22.9376 -28.7688 19.6874
521 1 22.8259 -28.3239 20.4647
522 1 22.0597 -27.9307 20.0217
523 1 21.8876 -28.8233 20.1746
524 1 22.4105 -29.6114 19.9884
525 1 23.3262 -29.7759 20.0359
526 1 23.2215 -30.6042 19.6579
527 1 23.0115 -30.6051 18.7316
528 1 23.2718 -30.8828 17.8596
529 1 23.8448 -30.7184 17.1237
530 1 22.9924 -30.1448 17.0099
531 1 22.2051 -29.7672 17.1657
532 1 22.8361 -29.1623 16.6801
533 1 22.9909 -28.9781 17.5625
534 1 23.0845 -29.8115 18.0095
535 1 22.3555 -30.3877 18.0222
536 1 21.8705 -30.371 18.8586
537 1 21.3941 -29.8104 18.2655
538 1 22.1491 -29.1985 18.1851
539 1 22.3261 -28.2619 17.95
540 25 21.8933 -28.5643 17.1849
541 26 44.7622 -28.2822 41.474
542 1 44.0107 -27.8233 41.8162
543 1 43.3034 -27.5037 42.3084
544 1 43.9379 -28.0534 42.8522
545 1 44.8291 -28.3176 42.5529
546 1 44.1548 -28.8459 42.0841
547 1 44.8658 -29.3215 41.6969
548 1 45.0566 -30.1062 41.2265
549 1 44.675 -29.9974 40.3942
550 1 44.0929 -29.6287 39.8259
551 1 44.1706 -28.6101 39.7748
552 1 44.408 -28.9397 40.6058
553 1 43.9658 -28.1261 40.8032
554 1 43.4401 -28.7139 41.356
555 1 43.0401 -27.8194 41.2882
556 1 42.4418 -28.1541 41.9504
557 1 43.1162 -28.5451 42.3862
558 1 42.6836 -28.1716 43.0785
559 1 42.2102 -28.6823 43.733
560 1 43.1014 -29.236 43.7321
561 1 43.7596 -29.1223 43.0515
562 1 44.2278 -29.9132 43.3672
563 1 44.8095 -29.4363 42.7654
564 1 45.3943 -30.1361 42.2811
565 1 44.7683 -30.6332 42.8044
566 1 44.7922 -31.588 42.6486
567 1 45.0317 -31.1114 41.8477
568 1 44.4193 -31.7954 41.47
569 1 43.4812 -31.6633 41.4404
570 27 43.6092 -32.2789 42.1422
571 1 43.6646 -31.8394 42.9334
572 1 43.8228 -31.012 43.3541
573 1 43.1884 -30.3156 43.5678
574 1 43.407 -30.3073 42.6787
575 1 43.3615 -29.5896 42.0967
576 1 43.9347 -29.6539 41.2642
577 1 44.2864 -30.1348 42.0104
578 1 43.9432 -31.0394 42.1472
579 1 43.0023 -31.2732 42.317
580 1 42.0992 -31.1812 42.3027
581 1 42.4436 -30.3906 41.9159
582 1 43.2745 -30.5746 41.4919
583 1 44.15 -30.739 41.1138
584 1 44.8832 -31.1424 40.6646
585 1 44.1423 -31.5615 40.4044
586 1 44.116 -30.7765 39.8763
587 1 43.2343 -31.0846 39.6177
588 1 43.2237 -31.1307 40.5783
589 1 43.3956 -30.2189 40.4392
590 1 43.0043 -29.9292 39.6357
591 1 43.1102 -28.9344 39.3279
592 1 42.162 -28.8045 39.6985
593 1 41.9007 -29.6861 39.5878
594 1 42.3481 -29.5863 40.3876
595 1 42.8568 -29.5451 41.1255
596 1 43.3589 -29.111 40.3867
597 1 43.0005 -28.2032 40.2467
598 1 42.3952 -28.5903 40.8745
599 1 41.6187 -28.6693 41.4473
600 28 41.3269 -28.955 40.6075
601 1 40.6898 -29.315 41.2584
602 1 40.696 -30.1559 41.7663
603 1 40.4286 -30.081 42.6713
604 1 41.1144 -30.784 42.513
605 1 41.5517 -29.9492 42.3759
606 1 41.0001 -29.2121 42.3005
607 1 41.7943 -28.7313 42.6092
608 1 42.344 -29.268 42.002
609 1 42.5556 -29.4395 42.864
610 1 42.3411 -30.3054 43.0031
611 1 42.2294 -29.8605 43.7805
612 1 41.4632 -29.4673 43.3375
613 1 41.2911 -30.3599 43.4904
614 1 41.814 -31.148 43.3042
615 1 42.7297 -31.3125 43.3517
616 1 42.625 -32.1408 42.9737
617 1 42.415 -32.1417 42.0473
618 1 42.6753 -32.4194 41.1753
619 1 43.2483 -32.255 40.4395
620 1 42.3959 -31.6814 40.3257
621 1 41.6086 -31.3038 40.4814
622 1 42.2396 -30.6989 39.9959
623 1 42.3944 -30.5147 40.8783
624 1 42.488 -31.3481 41.3252
625 1 41.759 -31.9243 41.338
626 1 41.274 -31.9076 42.1744
627 1 40.7976 -31.347 41.5812
628 1 41.5526 -30.7351 41.5008
629 1 41.7296 -29.7985 41.2658
630 29 41.2968 -30.1009 40.5007
631 30 -8.75585 -28.9271 -15.793
632 1 -9.50735 -28.4682 -15.4508
633 1 -10.2146 -28.1486 -14.9587
634 1 -9.58015 -28.6983 -14.4149
635 1 -8.68895 -28.9625 -14.7142
636 1 -9.36325 -29.4908 -15.183
637 1 -8.65225 -29.9664 -15.5702
638 1 -8.46145 -30.7511 -16.0405
639 1 -8.84305 -30.6423 -16.8729
640 1 -9.42515 -30.2736 -17.4412
641 1 -9.34745 -29.255 -17.4922
642 1 -9.11005 -29.5846 -16.6613
643 1 -9.55225 -28.771 -16.4639
644 1 -10.0779 -29.3588 -15.9111
645 1 -10.4779 -28.4643 -15.9788
646 1 -11.0762 -28.799 -15.3167
647 1 -10.4018 -29.19 -14.8809
648 1 -10.8344 -28.8165 -14.1885
649 1 -11.3078 -29.3272 -13.5341
650 1 -10.4166 -29.8809 -13.535
651 1 -9.75845 -29.7672 -14.2156
652 1 -9.29025 -30.5581 -13.8999
653 1 -8.70855 -30.0812 -14.5017
654 1 -8.12375 -30.781 -14.9859
655 1 -8.74975 -31.2781 -14.4627
656 1 -8.72585 -32.2329 -14.6185
657 1 -8.48635 -31.7563 -15.4194
658 1 -9.09875 -32.4403 -15.797
659 1 -10.0368 -32.3082 -15.8267
660 31 -9.90885 -32.9238 -15.1249
661 1 -9.85345 -32.4843 -14.3337
662 1 -9.69525 -31.6569 -13.913
663 1 -10.3296 -30.9605 -13.6992
664 1 -10.111 -30.9522 -14.5884
665 1 -10.1565 -30.2345 -15.1703
666 1 -9.58335 -30.2988 -16.0029
667 1 -9.23165 -30.7797 -15.2567
668 1 -9.57485 -31.6843 -15.1199
669 1 -10.5157 -31.9181 -14.9501
670 1 -11.4188 -31.8261 -14.9643
671 1 -11.0744 -31.0355 -15.3512
672 1 -10.2435 -31.2195 -15.7752
673 1 -9.36805 -31.3839 -16.1533
674 1 -8.63485 -31.7873 -16.6024
675 1 -9.37575 -32.2064 -16.8627
676 1 -9.40205 -31.4214 -17.3908
677 1 -10.2837 -31.7295 -17.6494
678 1 -10.2943 -31.7756 -16.6888
679 1 -10.1224 -30.8638 -16.8279
680 1 -10.5137 -30.5741 -17.6314
681 1 -10.4078 -29.5793 -17.9392
682 1 -11.356 -29.4494 -17.5686
683 1 -11.6173 -30.331 -17.6793
684 1 -11.1699 -30.2312 -16.8795
685 1 -10.6612 -30.19 -16.1415
686 1 -10.1591 -29.7559 -16.8803
687 1 -10.5175 -28.8481 -17.0204
688 1 -11.1228 -29.2352 -16.3926
689 1 -11.8993 -29.3142 -15.8198
690 32 -12.1911 -29.5999 -16.6596
691 1 -12.8282 -29.9599 -16.0087
692 1 -12.822 -30.8008 -15.5008
693 1 -13.0894 -30.7259 -14.5958
694 1 -12.4036 -31.4289 -14.7541
695 1 -11.9663 -30.5941 -14.8911
696 1 -12.5179 -29.857 -14.9666
697 1 -11.7237 -29.3762 -14.6578
698 1 -11.174 -29.9129 -15.265
699 1 -10.9624 -30.0844 -14.4031
700 1 -11.1769 -30.9503 -14.2639
701 1 -11.2886 -30.5054 -13.4866
702 1 -12.0548 -30.1122 -13.9296
703 1 -12.2269 -31.0048 -13.7767
704 1 -11.704 -31.7929 -13.9629
705 1 -10.7883 -31.9574 -13.9154
706 1 -10.893 -32.7857 -14.2934
707 1 -11.103 -32.7866 -15.2198
708 1 -10.8427 -33.0643 -16.0918
709 1 -10.2697 -32.8999 -16.8276
710 1 -11.1221 -32.3263 -16.9414
711 1 -11.9094 -31.9487 -16.7856
712 1 -11.2784 -31.3438 -17.2712
713 1 -11.1236 -31.1596 -16.3888
714 1 -11.03 -31.993 -15.9418
715 1 -11.759 -32.5692 -15.9291
716 1 -12.244 -32.5525 -15.0927
717 1 -12.7204 -31.9919 -15.6859
718 1 -11.9654 -31.38 -15.7662
719 1 -11.7884 -30.4434 -16.0013
720 33 -12.2212 -30.7458 -16.7664
721 34 44.1501 17.3632 -39.9316
722 1 43.3986 17.8221 -39.5894
723 1 42.6913 18.1417 -39.0972
724 1 43.3258 17.592 -38.5534
725 1 44.217 17.3278 -38.8527
726 1 43.5427 16.7995 -39.3215
727 1 44.2537 16.3239 -39.7087
728 1 44.4445 15.5392 -40.1791
729 1 44.0629 15.648 -41.0114
730 1 43.4808 16.0167 -41.5797
731 1 43.5585 17.0353 -41.6308
732 1 43.7959 16.7057 -40.7998
733 1 43.3537 17.5193 -40.6024
734 1 42.828 16.9315 -40.0496
735 1 42.428 17.826 -40.1174
736 1 41.8297 17.4913 -39.4552
737 1 42.5041 17.1003 -39.0194
738 1 42.0715 17.4738 -38.3271
739 1 41.5981 16.9631 -37.6726
740 1 42.4893 16.4094 -37.6735
741 1 43.1475 16.5231 -38.3541
742 1 43.6157 15.7322 -38.0384
743 1 44.1974 16.2091 -38.6402
744 1 44.7822 15.5093 -39.1245
745 1 44.1562 15.0122 -38.6012
746 1 44.1801 14.0574 -38.757
747 1 44.4196 14.534 -39.5579
748 1 43.8072 13.85 -39.9356
749 1 42.8691 13.9821 -39.9652
750 35 42.9971 13.3665 -39.2634
751 1 43.0525 13.806 -38.4722
752 1 43.2107 14.6334 -38.0515
753 1 42.5763 15.3298 -37.8378
754 1 42.7949 15.3381 -38.7269
755 1 42.7494 16.0558 -39.3089
756 1 43.3226 15.9915 -40.1414
757 1 43.6743 15.5106 -39.3952
758 1 43.3311 14.606 -39.2584
759 1 42.3902 14.3722 -39.0886
760 1 41.4871 14.4642 -39.1029
761 1 41.8315 15.2548 -39.4897
762 1 42.6624 15.0708 -39.9137
763 1 43.5379 14.9064 -40.2918
764 1 44.2711 14.503 -40.741
765 1 43.5302 14.0839 -41.0012
766 1 43.5039 14.8689 -41.5293
767 1 42.6222 14.5608 -41.7879
768 1 42.6116 14.5147 -40.8273
769 1 42.7835 15.4265 -40.9664
770 1 42.3922 15.7162 -41.7699
771 1 42.4981 16.711 -42.0777
772 1 41.5499 16.8409 -41.7071
773 1 41.2886 15.9593 -41.8178
774 1 41.736 16.0591 -41.018
775 1 42.2447 16.1003 -40.2801
776 1 42.7468 16.5344 -41.0189
777 1 42.3884 17.4422 -41.1589
778 1 41.7831 17.0551 -40.5311
779 1 41.0066 16.9761 -39.9583
780 36 40.7148 16.6904 -40.7981
781 1 40.0777 16.3304 -40.1472
782 1 40.0839 15.4895 -39.6393
783 1 39.8165 15.5644 -38.7343
784 1 40.5023 14.8614 -38.8926
785 1 40.9396 15.6962 -39.0297
786 1 40.388 16.4333 -39.1051
787 1 41.1822 16.9141 -38.7964
788 1 41.7319 16.3774 -39.4036
789 1 41.9435 16.2059 -38.5416
790 1 41.729 15.34 -38.4025
791 1 41.6173 15.7849 -37.6251
792 1 40.8511 16.1781 -38.0681
793 1 40.679 15.2855 -37.9152
794 1 41.2019 14.4974 -38.1014
795 1 42.1176 14.3329 -38.0539
796 1 42.0129 13.5046 -38.4319
797 1 41.8029 13.5037 -39.3583
798 1 42.0632 13.226 -40.2303
799 1 42.6362 13.3904 -40.9661
800 1 41.7838 13.964 -41.0799
801 1 40.9965 14.3416 -40.9242
802 1 41.6275 14.9465 -41.4097
803 1 41.7823 15.1307 -40.5273
804 1 41.8759 14.2973 -40.0804
805 1 41.1469 13.7211 -40.0676
806 1 40.6619 13.7378 -39.2312
807 1 40.1855 14.2984 -39.8244
808 1 40.9405 14.9103 -39.9048
809 1 41.1175 15.8469 -40.1398
810 37 40.6847 15.5445 -40.9049
811 38 -8.17109 35.544 -6.2528
812 1 -8.92259 36.0029 -5.91061
813 1 -9.62989 36.3225 -5.41848
814 1 -8.99539 35.7728 -4.87463
815 1 -8.10419 35.5086 -5.17392
816 1 -8.77849 34.9803 -5.64274
817 1 -8.06749 34.5047 -6.02996
818 1 -7.87669 33.72 -6.50029
819 1 -8.25829 33.8288 -7.33265
820 1 -8.84039 34.1975 -7.90094
821 1 -8.76269 35.2161 -7.952
822 1 -8.52529 34.8865 -7.12102
823 1 -8.96749 35.7001 -6.92367
824 1 -9.49319 35.1123 -6.37083
825 1 -9.89319 36.0068 -6.43859
826 1 -10.4915 35.6721 -5.77648
827 1 -9.81709 35.2811 -5.34066
828 1 -10.2497 35.6546 -4.64831
829 1 -10.7231 35.1439 -3.99386
830 1 -9.83189 34.5902 -3.99478
831 1 -9.17369 34.7039 -4.67535
832 1 -8.70549 33.913 -4.35967
833 1 -8.12379 34.3899 -4.96142
834 1 -7.53899 33.6901 -5.44569
835 1 -8.16499 33.193 -4.92242
836 1 -8.14109 32.2382 -5.07826
837 1 -7.90159 32.7148 -5.87916
838 1 -8.51399 32.0308 -6.25681
839 1 -9.45209 32.1629 -6.28647
840 39 -9.32409 31.5473 -5.58463
841 1 -9.26869 31.9868 -4.79342
842 1 -9.11049 32.8142 -4.37276
843 1 -9.74489 33.5106 -4.159
844 1 -9.52629 33.5189 -5.04815
845 1 -9.57179 34.2366 -5.63009
846 1 -8.99859 34.1723 -6.46264
847 1 -8.64689 33.6914 -5.71647
848 1 -8.99009 32.7868 -5.57965
849 1 -9.93099 32.553 -5.40987
850 1 -10.8341 32.645 -5.4241
851 1 -10.4897 33.4356 -5.81098
852 1 -9.65879 33.2516 -6.23493
853 1 -8.78329 33.0872 -6.61307
854 1 -8.05009 32.6838 -7.06219
855 1 -8.79099 32.2647 -7.32247
856 1 -8.81729 33.0497 -7.85058
857 1 -9.69899 32.7416 -8.10917
858 1 -9.70959 32.6955 -7.14858
859 1 -9.53769 33.6073 -7.28768
860 1 -9.92899 33.897 -8.09116
861 1 -9.82309 34.8918 -8.39895
862 1 -10.7713 35.0217 -8.02835
863 1 -11.0326 34.1401 -8.13902
864 1 -10.5852 34.2399 -7.33922
865 1 -10.0765 34.2811 -6.6013
866 1 -9.57439 34.7152 -7.34011
867 1 -9.93279 35.623 -7.48016
868 1 -10.5381 35.2359 -6.85233
869 1 -11.3146 35.1569 -6.27954
870 40 -11.6064 34.8712 -7.11933
871 1 -12.2435 34.5112 -6.46846
872 1 -12.2373 33.6703 -5.96057
873 1 -12.5047 33.7452 -5.05558
874 1 -11.8189 33.0422 -5.21384
875 1 -11.3816 33.877 -5.3509
876 1 -11.9332 34.6141 -5.42637
877 1 -11.139 35.0949 -5.11759
878 1 -10.5893 34.5582 -5.72481
879 1 -10.3777 34.3867 -4.86286
880 1 -10.5922 33.5208 -4.7237
881 1 -10.7039 33.9657 -3.94638
882 1 -11.4701 34.3589 -4.38935
883 1 -11.6422 33.4663 -4.23648
884 1 -11.1193 32.6782 -4.42267
885 1 -10.2036 32.5137 -4.37515
886 1 -10.3083 31.6854 -4.75317
887 1 -10.5183 31.6845 -5.67952
888 1 -10.258 31.4068 -6.55154
889 1 -9.68499 31.5712 -7.28736
890 1 -10.5374 32.1448 -7.40115
891 1 -11.3247 32.5224 -7.2454
892 1 -10.6937 33.1273 -7.73096
893 1 -10.5389 33.3115 -6.84855
894 1 -10.4453 32.4781 -6.40159
895 1 -11.1743 31.9019 -6.38887
896 1 -11.6593 31.9186 -5.55245
897 1 -12.1357 32.4792 -6.14563
898 1 -11.3807 33.0911 -6.22601
899 1 -11.2037 34.0277 -6.46106
900 41 -11.6365 33.7253 -7.22616
901 42 -37.7169 33.5143 -7.69657
902 1 -38.4684 33.9732 -7.35438
903 1 -39.1757 34.2928 -6.86225
904 1 -38.5412 33.7431 -6.3184
905 1 -37.65 33.4789 -6.61769
906 1 -38.3243 32.9506 -7.08651
907 1 -37.6133 32.475 -7.47373
908 1 -37.4225 31.6903 -7.94406
909 1 -37.8041 31.7991 -8.77642
910 1 -38.3862 32.1678 -9.34471
911 1 -38.3085 33.1864 -9.39577
912 1 -38.0711 32.8568 -8.56479
913 1 -38.5133 33.6704 -8.36744
914 1 -39.039 33.0826 -7.8146
915 1 -39.439 33.9771 -7.88236
916 1 -40.0373 33.6424 -7.22025
917 1 -39.3629 33.2514 -6.78443
918 1 -39.7955 33.6249 -6.09208
919 1 -40.2689 33.1142 -5.43763
920 1 -39.3777 32.5605 -5.43855
921 1 -38.7195 32.6742 -6.11912
922 1 -38.2513 31.8833 -5.80344
923 1 -37.6696 32.3602 -6.40519
924 1 -37.0848 31.6604 -6.88946
925 1 -37.7108 31.1633 -6.36619
926 1 -37.6869 30.2085 -6.52203
927 1 -37.4474 30.6851 -7.32293
928 1 -38.0598 30.0011 -7.70058
929 1 -38.9979 30.1332 -7.73024
930 43 -38.8699 29.5176 -7.0284
931 1 -38.8145 29.9571 -6.23719
932 1 -38.6563 30.7845 -5.81653
933 1 -39.2907 31.4809 -5.60277
934 1 -39.0721 31.4892 -6.49192
935 1 -39.1176 32.2069 -7.07386
936 1 -38.5444 32.1426 -7.90641
937 1 -38.1927 31.6617 -7.16024
938 1 -38.5359 30.7571 -7.02342
939 1 -39.4768 30.5233 -6.85364
940 1 -40.3799 30.6153 -6.86787
941 1 -40.0355 31.4059 -7.25475
942 1 -39.2046 31.2219 -7.6787